Variables = x  y  z  P  T  S_hyd  S_aqu  S_gas  S_icd  X_inh  k_rg  k_rw  k_adj_F  perm_abs  porosity  P_cap
ZONE T= " 3.00000000E+00", F=POINT I=    11
 5.0999999E-02 -5.0000000E-01 -5.0000000E-01  4.8503480E+06  6.1867301E+00  4.8364295E-01  4.5787814E-01  5.8478908E-02  0.0000000E+00  0.0000000E+00  1.1899764E-03  6.6146747E-01  1.1830002E-01  2.9600000E-13  2.9657079E-01 -7.0519533E+03
 1.5099999E-01 -5.0000000E-01 -5.0000000E-01  5.3766572E+06  7.1611174E+00  5.0317226E-01  4.9682774E-01  0.0000000E+00  0.0000000E+00  0.0000000E+00  0.0000000E+00  1.0000000E+00  1.0405180E-01  2.9600000E-13  2.9813579E-01  0.0000000E+00
 2.5099999E-01 -5.0000000E-01 -5.0000000E-01  5.6929127E+06  7.1808730E+00  5.0156028E-01  4.9843972E-01  0.0000000E+00  0.0000000E+00  0.0000000E+00  0.0000000E+00  1.0000000E+00  1.0518199E-01  2.9600000E-13  2.9908015E-01  0.0000000E+00
 3.5100001E-01 -5.0000000E-01 -5.0000000E-01  5.8535606E+06  7.1908466E+00  5.0074345E-01  4.9925655E-01  0.0000000E+00  0.0000000E+00  0.0000000E+00  0.0000000E+00  1.0000000E+00  1.0575781E-01  2.9600000E-13  2.9956100E-01  0.0000000E+00
 4.5100001E-01 -5.0000000E-01 -5.0000000E-01  5.9316084E+06  7.1957173E+00  5.0034708E-01  4.9965292E-01  0.0000000E+00  0.0000000E+00  0.0000000E+00  0.0000000E+00  1.0000000E+00  1.0603798E-01  2.9600000E-13  2.9979490E-01  0.0000000E+00
 5.5100000E-01 -5.0000000E-01 -5.0000000E-01  5.9684936E+06  7.1980253E+00  5.0015986E-01  4.9984014E-01  0.0000000E+00  0.0000000E+00  0.0000000E+00  0.0000000E+00  1.0000000E+00  1.0617048E-01  2.9600000E-13  2.9990550E-01  0.0000000E+00
 6.5100002E-01 -5.0000000E-01 -5.0000000E-01  5.9855948E+06  7.1990967E+00  5.0007308E-01  4.9992692E-01  0.0000000E+00  0.0000000E+00  0.0000000E+00  0.0000000E+00  1.0000000E+00  1.0623194E-01  2.9600000E-13  2.9995679E-01  0.0000000E+00
 7.5099999E-01 -5.0000000E-01 -5.0000000E-01  5.9933848E+06  7.1995851E+00  5.0003356E-01  4.9996644E-01  0.0000000E+00  0.0000000E+00  0.0000000E+00  0.0000000E+00  1.0000000E+00  1.0625994E-01  2.9600000E-13  2.9998016E-01  0.0000000E+00
 8.5100001E-01 -5.0000000E-01 -5.0000000E-01  5.9968100E+06  7.1997999E+00  5.0001618E-01  4.9998382E-01  0.0000000E+00  0.0000000E+00  0.0000000E+00  0.0000000E+00  1.0000000E+00  1.0627225E-01  2.9600000E-13  2.9999043E-01  0.0000000E+00
 9.5099998E-01 -5.0000000E-01 -5.0000000E-01  5.9980979E+06  7.1998807E+00  5.0000965E-01  4.9999035E-01  0.0000000E+00  0.0000000E+00  0.0000000E+00  0.0000000E+00  1.0000000E+00  1.0627688E-01  2.9600000E-13  2.9999429E-01  0.0000000E+00
 5.0000002E-04 -5.0000000E-01 -5.0000000E-01  2.7000000E+06  1.0000000E+00  0.0000000E+00  1.0000000E+00  0.0000000E+00  0.0000000E+00  0.0000000E+00  0.0000000E+00  1.0000000E+00  1.0000000E+00  2.9600000E-13  3.0000000E-01  0.0000000E+00



ZONE T= " 1.10000000E+01", F=POINT I=    11
 5.0999999E-02 -5.0000000E-01 -5.0000000E-01  3.8645179E+06  3.9090683E+00  4.3526785E-01  4.5787021E-01  1.0686194E-01  0.0000000E+00  0.0000000E+00  7.1113558E-03  4.8368224E-01  1.5906443E-01  2.9600000E-13  2.9366147E-01 -1.0281113E+04
 1.5099999E-01 -5.0000000E-01 -5.0000000E-01  5.0220746E+06  6.5333316E+00  4.9068441E-01  4.6827475E-01  4.1040834E-02  0.0000000E+00  0.0000000E+00  3.2624777E-04  7.4968086E-01  1.1302194E-01  2.9600000E-13  2.9708052E-01 -5.6335189E+03
 2.5099999E-01 -5.0000000E-01 -5.0000000E-01  5.3301812E+06  7.1229471E+00  5.0257841E-01  4.9508917E-01  2.3324266E-03  0.0000000E+00  0.0000000E+00  0.0000000E+00  9.8409968E-01  1.0446721E-01  2.9600000E-13  2.9799726E-01 -1.0879488E+03
 3.5100001E-01 -5.0000000E-01 -5.0000000E-01  5.5266207E+06  7.1706007E+00  5.0240719E-01  4.9759281E-01  0.0000000E+00  0.0000000E+00  0.0000000E+00  0.0000000E+00  1.0000000E+00  1.0458719E-01  2.9600000E-13  2.9858322E-01  0.0000000E+00
 4.5100001E-01 -5.0000000E-01 -5.0000000E-01  5.6751133E+06  7.1797678E+00  5.0165086E-01  4.9834914E-01  0.0000000E+00  0.0000000E+00  0.0000000E+00  0.0000000E+00  1.0000000E+00  1.0511827E-01  2.9600000E-13  2.9902692E-01  0.0000000E+00
 5.5100000E-01 -5.0000000E-01 -5.0000000E-01  5.7811442E+06  7.1863374E+00  5.0111150E-01  4.9888850E-01  0.0000000E+00  0.0000000E+00  0.0000000E+00  0.0000000E+00  1.0000000E+00  1.0549810E-01  2.9600000E-13  2.9934415E-01  0.0000000E+00
 6.5100002E-01 -5.0000000E-01 -5.0000000E-01  5.8535616E+06  7.1908425E+00  5.0074344E-01  4.9925656E-01  0.0000000E+00  0.0000000E+00  0.0000000E+00  0.0000000E+00  1.0000000E+00  1.0575781E-01  2.9600000E-13  2.9956101E-01  0.0000000E+00
 7.5099999E-01 -5.0000000E-01 -5.0000000E-01  5.9004991E+06  7.1937703E+00  5.0050503E-01  4.9949497E-01  0.0000000E+00  0.0000000E+00  0.0000000E+00  0.0000000E+00  1.0000000E+00  1.0592627E-01  2.9600000E-13  2.9970165E-01  0.0000000E+00
 8.5100001E-01 -5.0000000E-01 -5.0000000E-01  5.9282913E+06  7.1955068E+00  5.0036392E-01  4.9963608E-01  0.0000000E+00  0.0000000E+00  0.0000000E+00  0.0000000E+00  1.0000000E+00  1.0602607E-01  2.9600000E-13  2.9978495E-01  0.0000000E+00
 9.5099998E-01 -5.0000000E-01 -5.0000000E-01  5.9411484E+06  7.1963112E+00  5.0029865E-01  4.9970135E-01  0.0000000E+00  0.0000000E+00  0.0000000E+00  0.0000000E+00  1.0000000E+00  1.0607224E-01  2.9600000E-13  2.9982350E-01  0.0000000E+00
 5.0000002E-04 -5.0000000E-01 -5.0000000E-01  2.7000000E+06  1.0000000E+00  0.0000000E+00  1.0000000E+00  0.0000000E+00  0.0000000E+00  0.0000000E+00  0.0000000E+00  1.0000000E+00  1.0000000E+00  2.9600000E-13  3.0000000E-01  0.0000000E+00



ZONE T= " 3.50000000E+01", F=POINT I=    11
 5.0999999E-02 -5.0000000E-01 -5.0000000E-01  3.2103471E+06  2.0861796E+00  3.9163699E-01  4.8954703E-01  1.1881598E-01  0.0000000E+00  0.0000000E+00  7.9055221E-03  4.7102566E-01  2.0303884E-01  2.9600000E-13  2.9174670E-01 -1.0546548E+04
 1.5099999E-01 -5.0000000E-01 -5.0000000E-01  4.1567184E+06  4.6393532E+00  4.5049270E-01  4.5808654E-01  9.1420766E-02  0.0000000E+00  0.0000000E+00  4.6014619E-03  5.3330274E-01  1.4536328E-01  2.9600000E-13  2.9452081E-01 -9.2977955E+03
 2.5099999E-01 -5.0000000E-01 -5.0000000E-01  4.8710788E+06  6.2292877E+00  4.8432990E-01  4.6121675E-01  5.4453354E-02  0.0000000E+00  0.0000000E+00  9.2030482E-04  6.8147921E-01  1.1777802E-01  2.9600000E-13  2.9663228E-01 -6.7253724E+03
 3.5100001E-01 -5.0000000E-01 -5.0000000E-01  5.1918935E+06  6.8632495E+00  4.9733544E-01  4.8313318E-01  1.9531381E-02  0.0000000E+00  0.0000000E+00  9.8373849E-06  8.7330010E-01  1.0818291E-01  2.9600000E-13  2.9758545E-01 -3.6052524E+03
 4.5100001E-01 -5.0000000E-01 -5.0000000E-01  5.3243278E+06  7.1121126E+00  5.0235924E-01  4.9460527E-01  3.0354867E-03  0.0000000E+00  0.0000000E+00  0.0000000E+00  9.7934919E-01  1.0462080E-01  2.9600000E-13  2.9797982E-01 -1.2590671E+03
 5.5100000E-01 -5.0000000E-01 -5.0000000E-01  5.4176855E+06  7.1637619E+00  5.0296277E-01  4.9703723E-01  0.0000000E+00  0.0000000E+00  0.0000000E+00  0.0000000E+00  1.0000000E+00  1.0419821E-01  2.9600000E-13  2.9825813E-01  0.0000000E+00
 6.5100002E-01 -5.0000000E-01 -5.0000000E-01  5.4945450E+06  7.1685590E+00  5.0257069E-01  4.9742931E-01  0.0000000E+00  0.0000000E+00  0.0000000E+00  0.0000000E+00  1.0000000E+00  1.0447261E-01  2.9600000E-13  2.9848746E-01  0.0000000E+00
 7.5099999E-01 -5.0000000E-01 -5.0000000E-01  5.5524341E+06  7.1721051E+00  5.0227562E-01  4.9772438E-01  0.0000000E+00  0.0000000E+00  0.0000000E+00  0.0000000E+00  1.0000000E+00  1.0467945E-01  2.9600000E-13  2.9866030E-01  0.0000000E+00
 8.5100001E-01 -5.0000000E-01 -5.0000000E-01  5.5910439E+06  7.1744785E+00  5.0207891E-01  4.9792109E-01  0.0000000E+00  0.0000000E+00  0.0000000E+00  0.0000000E+00  1.0000000E+00  1.0481748E-01  2.9600000E-13  2.9877564E-01  0.0000000E+00
 9.5099998E-01 -5.0000000E-01 -5.0000000E-01  5.6103339E+06  7.1756703E+00  5.0198066E-01  4.9801934E-01  0.0000000E+00  0.0000000E+00  0.0000000E+00  0.0000000E+00  1.0000000E+00  1.0488647E-01  2.9600000E-13  2.9883328E-01  0.0000000E+00
 5.0000002E-04 -5.0000000E-01 -5.0000000E-01  2.7000000E+06  1.0000000E+00  0.0000000E+00  1.0000000E+00  0.0000000E+00  0.0000000E+00  0.0000000E+00  0.0000000E+00  1.0000000E+00  1.0000000E+00  2.9600000E-13  3.0000000E-01  0.0000000E+00



ZONE T= " 8.30000000E+01", F=POINT I=    11
 5.0999999E-02 -5.0000000E-01 -5.0000000E-01  2.9978394E+06  1.4337654E+00  3.7319099E-01  5.0407693E-01  1.2273208E-01  0.0000000E+00  0.0000000E+00  7.9733818E-03  4.6999417E-01  2.2383361E-01  2.9600000E-13  2.9112737E-01 -1.0568476E+04
 1.5099999E-01 -5.0000000E-01 -5.0000000E-01  3.5753843E+06  3.1362926E+00  4.1575967E-01  4.7623865E-01  1.0800168E-01  0.0000000E+00  0.0000000E+00  6.5748307E-03  4.9291493E-01  1.7784399E-01  2.9600000E-13  2.9281363E-01 -1.0091529E+04
 2.5099999E-01 -5.0000000E-01 -5.0000000E-01  4.1622040E+06  4.6525936E+00  4.5047411E-01  4.5985017E-01  8.9675723E-02  0.0000000E+00  0.0000000E+00  4.3079112E-03  5.4046653E-01  1.4537951E-01  2.9600000E-13  2.9453697E-01 -9.1624210E+03
 3.5100001E-01 -5.0000000E-01 -5.0000000E-01  4.6680146E+06  5.8036470E+00  4.7538987E-01  4.5705337E-01  6.7556761E-02  0.0000000E+00  0.0000000E+00  1.8886059E-03  6.2210226E-01  1.2469246E-01  2.9600000E-13  2.9603054E-01 -7.7088434E+03
 4.5100001E-01 -5.0000000E-01 -5.0000000E-01  5.0006571E+06  6.4908306E+00  4.8974181E-01  4.6797481E-01  4.2283382E-02  0.0000000E+00  0.0000000E+00  3.6459671E-04  7.4326715E-01  1.1371919E-01  2.9600000E-13  2.9701690E-01 -5.7355150E+03
 5.5100000E-01 -5.0000000E-01 -5.0000000E-01  5.1772442E+06  6.8352753E+00  4.9678356E-01  4.8185432E-01  2.1362120E-02  0.0000000E+00  0.0000000E+00  1.6606119E-05  8.6214917E-01  1.0857908E-01  2.9600000E-13  2.9754186E-01 -3.7994386E+03
 6.5100002E-01 -5.0000000E-01 -5.0000000E-01  5.2673572E+06  7.0059380E+00  5.0023371E-01  4.8982802E-01  9.9382717E-03  0.0000000E+00  0.0000000E+00  0.0000000E+00  9.3372778E-01  1.0611821E-01  2.9600000E-13  2.9781010E-01 -2.4456476E+03
 7.5099999E-01 -5.0000000E-01 -5.0000000E-01  5.3113013E+06  7.0879513E+00  5.0187884E-01  4.9353866E-01  4.5824917E-03  0.0000000E+00  0.0000000E+00  0.0000000E+00  9.6896461E-01  1.0495800E-01  2.9600000E-13  2.9794100E-01 -1.5832631E+03
 8.5100001E-01 -5.0000000E-01 -5.0000000E-01  5.3324873E+06  7.1272119E+00  5.0266510E-01  4.9528065E-01  2.0542555E-03  0.0000000E+00  0.0000000E+00  0.0000000E+00  9.8598465E-01  1.0440650E-01  2.9600000E-13  2.9800413E-01 -1.0140811E+03
 9.5099998E-01 -5.0000000E-01 -5.0000000E-01  5.3411045E+06  7.1431292E+00  5.0298315E-01  4.9597977E-01  1.0370770E-03  0.0000000E+00  0.0000000E+00  0.0000000E+00  9.9290343E-01  1.0418396E-01  2.9600000E-13  2.9802981E-01 -6.9514291E+02
 5.0000002E-04 -5.0000000E-01 -5.0000000E-01  2.7000000E+06  1.0000000E+00  0.0000000E+00  1.0000000E+00  0.0000000E+00  0.0000000E+00  0.0000000E+00  0.0000000E+00  1.0000000E+00  1.0000000E+00  2.9600000E-13  3.0000000E-01  0.0000000E+00



ZONE T= " 2.75000000E+02", F=POINT I=    11
 5.0999999E-02 -5.0000000E-01 -5.0000000E-01  2.8556290E+06  9.8770265E-01  3.5770242E-01  5.1422224E-01  1.2807533E-01  0.0000000E+00  0.0000000E+00  8.4729148E-03  4.6261983E-01  2.4235336E-01  2.9600000E-13  2.9071365E-01 -1.0726594E+04
 1.5099999E-01 -5.0000000E-01 -5.0000000E-01  3.1515608E+06  1.9091457E+00  3.8453737E-01  4.9379065E-01  1.2167198E-01  0.0000000E+00  0.0000000E+00  8.2329394E-03  4.6611551E-01  2.1088268E-01  2.9600000E-13  2.9157524E-01 -1.0651343E+04
 2.5099999E-01 -5.0000000E-01 -5.0000000E-01  3.4611478E+06  2.8167205E+00  4.0764250E-01  4.7952746E-01  1.1283004E-01  0.0000000E+00  0.0000000E+00  7.2701555E-03  4.8106045E-01  1.8607419E-01  2.9600000E-13  2.9247932E-01 -1.0335559E+04
 3.5100001E-01 -5.0000000E-01 -5.0000000E-01  3.7731808E+06  3.6704582E+00  4.2805582E-01  4.6850746E-01  1.0343672E-01  0.0000000E+00  0.0000000E+00  6.1069430E-03  5.0148861E-01  1.6584461E-01  2.9600000E-13  2.9339337E-01 -9.9183565E+03
 4.5100001E-01 -5.0000000E-01 -5.0000000E-01  4.0739431E+06  4.4374907E+00  4.4562525E-01  4.6080151E-01  9.3573244E-02  0.0000000E+00  0.0000000E+00  4.8336858E-03  5.2789124E-01  1.4965430E-01  2.9600000E-13  2.9427712E-01 -9.4010647E+03
 5.5100000E-01 -5.0000000E-01 -5.0000000E-01  4.3471067E+06  5.0891301E+00  4.6010380E-01  4.5650487E-01  8.3391336E-02  0.0000000E+00  0.0000000E+00  3.5670795E-03  5.6045338E-01  1.3713282E-01  2.9600000E-13  2.9508208E-01 -8.7922623E+03
 6.5100002E-01 -5.0000000E-01 -5.0000000E-01  4.5764035E+06  5.6050473E+00  4.7130538E-01  4.5543293E-01  7.3261691E-02  0.0000000E+00  0.0000000E+00  2.4461684E-03  5.9808218E-01  1.2793955E-01  2.9600000E-13  2.9575947E-01 -8.1217631E+03
 7.5099999E-01 -5.0000000E-01 -5.0000000E-01  4.7499398E+06  5.9777456E+00  4.7925629E-01  4.5678698E-01  6.3956738E-02  0.0000000E+00  0.0000000E+00  1.5949987E-03  6.3701947E-01  1.2166979E-01  2.9600000E-13  2.9627316E-01 -7.4573242E+03
 8.5100001E-01 -5.0000000E-01 -5.0000000E-01  4.8634650E+06  6.2136807E+00  4.8423126E-01  4.5916662E-01  5.6602122E-02  0.0000000E+00  0.0000000E+00  1.0606129E-03  6.7059232E-01  1.1785288E-01  2.9600000E-13  2.9660970E-01 -6.9025252E+03
 9.5099998E-01 -5.0000000E-01 -5.0000000E-01  4.9188483E+06  6.3265958E+00  4.8657337E-01  4.6122163E-01  5.2205000E-02  0.0000000E+00  0.0000000E+00  7.9963598E-04  6.9187442E-01  1.1608394E-01  2.9600000E-13  2.9677402E-01 -6.5572291E+03
 5.0000002E-04 -5.0000000E-01 -5.0000000E-01  2.7000000E+06  1.0000000E+00  0.0000000E+00  1.0000000E+00  0.0000000E+00  0.0000000E+00  0.0000000E+00  0.0000000E+00  1.0000000E+00  1.0000000E+00  2.9600000E-13  3.0000000E-01  0.0000000E+00



ZONE T= " 6.59000000E+02", F=POINT I=    11
 5.0999999E-02 -5.0000000E-01 -5.0000000E-01  2.7864258E+06  7.5329456E-01  3.4835864E-01  5.0804461E-01  1.4359675E-01  0.0000000E+00  0.0000000E+00  1.1803089E-02  4.2118191E-01  2.5400498E-01  2.9600000E-13  2.9051254E-01 -1.1663844E+04
 1.5099999E-01 -5.0000000E-01 -5.0000000E-01  2.9391338E+06  1.2512925E+00  3.6753158E-01  4.8863310E-01  1.4383532E-01  0.0000000E+00  0.0000000E+00  1.3094758E-02  4.0780758E-01  2.3048695E-01  2.9600000E-13  2.9095651E-01 -1.1986368E+04
 2.5099999E-01 -5.0000000E-01 -5.0000000E-01  3.0923025E+06  1.7286463E+00  3.8180209E-01  4.7770822E-01  1.4048969E-01  0.0000000E+00  0.0000000E+00  1.3064068E-02  4.0811168E-01  2.1395778E-01  2.9600000E-13  2.9140251E-01 -1.1978913E+04
 3.5100001E-01 -5.0000000E-01 -5.0000000E-01  3.2411465E+06  2.1780500E+00  3.9422278E-01  4.6854715E-01  1.3723007E-01  0.0000000E+00  0.0000000E+00  1.2928149E-02  4.0946606E-01  2.0023104E-01  2.9600000E-13  2.9183657E-01 -1.1945783E+04
 4.5100001E-01 -5.0000000E-01 -5.0000000E-01  3.3814478E+06  2.5888975E+00  4.0504308E-01  4.6081967E-01  1.3413724E-01  0.0000000E+00  0.0000000E+00  1.2726684E-02  4.1149674E-01  1.8876249E-01  2.9600000E-13  2.9224630E-01 -1.1896323E+04
 5.5100000E-01 -5.0000000E-01 -5.0000000E-01  3.5087698E+06  2.9509360E+00  4.1429164E-01  4.5443280E-01  1.3127555E-01  0.0000000E+00  0.0000000E+00  1.2481896E-02  4.1400232E-01  1.7931410E-01  2.9600000E-13  2.9261863E-01 -1.1835643E+04
 6.5100002E-01 -5.0000000E-01 -5.0000000E-01  3.6185020E+06  3.2547930E+00  4.2187726E-01  4.4938738E-01  1.2873536E-01  0.0000000E+00  0.0000000E+00  1.2217250E-02  4.1675996E-01  1.7180421E-01  2.9600000E-13  2.9293991E-01 -1.1769296E+04
 7.5099999E-01 -5.0000000E-01 -5.0000000E-01  3.7060682E+06  3.4919105E+00  4.2767520E-01  4.4570428E-01  1.2662052E-01  0.0000000E+00  0.0000000E+00  1.1958809E-02  4.1950368E-01  1.6620770E-01  2.9600000E-13  2.9319654E-01 -1.1703731E+04
 8.5100001E-01 -5.0000000E-01 -5.0000000E-01  3.7672992E+06  3.6549203E+00  4.3157958E-01  4.4338285E-01  1.2503756E-01  0.0000000E+00  0.0000000E+00  1.1734670E-02  4.2192536E-01  1.6250827E-01  2.9600000E-13  2.9337612E-01 -1.1646226E+04
 9.5099998E-01 -5.0000000E-01 -5.0000000E-01  3.7988938E+06  3.7381398E+00  4.3348004E-01  4.4242592E-01  1.2409404E-01  0.0000000E+00  0.0000000E+00  1.1572138E-02  4.2370668E-01  1.6072762E-01  2.9600000E-13  2.9346882E-01 -1.1604143E+04
 5.0000002E-04 -5.0000000E-01 -5.0000000E-01  2.7000000E+06  1.0000000E+00  0.0000000E+00  1.0000000E+00  0.0000000E+00  0.0000000E+00  0.0000000E+00  0.0000000E+00  1.0000000E+00  1.0000000E+00  2.9600000E-13  3.0000000E-01  0.0000000E+00



ZONE T= " 1.68300000E+03", F=POINT I=    11
 5.0999999E-02 -5.0000000E-01 -5.0000000E-01  2.7226671E+06  5.0817041E-01  3.3840427E-01  5.1411499E-01  1.4748074E-01  0.0000000E+00  0.0000000E+00  1.2260422E-02  4.1630656E-01  2.6682254E-01  2.9600000E-13  2.9032737E-01 -1.1780173E+04
 1.5099999E-01 -5.0000000E-01 -5.0000000E-01  2.7517279E+06  6.2476079E-01  3.5329839E-01  4.8229900E-01  1.6440261E-01  0.0000000E+00  0.0000000E+00  1.8854188E-02  3.5960278E-01  2.4779972E-01  2.9600000E-13  2.9041175E-01 -1.3249377E+04
 2.5099999E-01 -5.0000000E-01 -5.0000000E-01  2.7794406E+06  7.2817635E-01  3.5957948E-01  4.7503295E-01  1.6538757E-01  0.0000000E+00  0.0000000E+00  1.9844579E-02  3.5269779E-01  2.4005652E-01  2.9600000E-13  2.9049225E-01 -1.3445247E+04
 3.5100001E-01 -5.0000000E-01 -5.0000000E-01  2.8052919E+06  8.1955738E-01  3.6442546E-01  4.7023544E-01  1.6533910E-01  0.0000000E+00  0.0000000E+00  2.0321314E-02  3.4948648E-01  2.3419399E-01  2.9600000E-13  2.9056735E-01 -1.3537792E+04
 4.5100001E-01 -5.0000000E-01 -5.0000000E-01  2.8287133E+06  8.9912453E-01  3.6831198E-01  4.6646697E-01  1.6522105E-01  0.0000000E+00  0.0000000E+00  2.0682314E-02  3.4710079E-01  2.2956175E-01  2.9600000E-13  2.9063541E-01 -1.3607158E+04
 5.5100000E-01 -5.0000000E-01 -5.0000000E-01  2.8491709E+06  9.6668341E-01  3.7146813E-01  4.6345048E-01  1.6508139E-01  0.0000000E+00  0.0000000E+00  2.0963872E-02  3.4526674E-01  2.2584530E-01  2.9600000E-13  2.9069488E-01 -1.3660847E+04
 6.5100002E-01 -5.0000000E-01 -5.0000000E-01  2.8661822E+06  1.0217790E+00  3.7394588E-01  4.6112065E-01  1.6493347E-01  0.0000000E+00  0.0000000E+00  2.1172746E-02  3.4392086E-01  2.2295594E-01  2.9600000E-13  2.9074433E-01 -1.3700448E+04
 7.5099999E-01 -5.0000000E-01 -5.0000000E-01  2.8793333E+06  1.0638320E+00  3.7575635E-01  4.5944527E-01  1.6479839E-01  0.0000000E+00  0.0000000E+00  2.1315960E-02  3.4300518E-01  2.2086037E-01  2.9600000E-13  2.9078257E-01 -1.3727490E+04
 8.5100001E-01 -5.0000000E-01 -5.0000000E-01  2.8882968E+06  1.0922707E+00  3.7691722E-01  4.5838638E-01  1.6469640E-01  0.0000000E+00  0.0000000E+00  2.1402084E-02  3.4245728E-01  2.1952362E-01  2.9600000E-13  2.9080864E-01 -1.3743710E+04
 9.5099998E-01 -5.0000000E-01 -5.0000000E-01  2.8928410E+06  1.1066279E+00  3.7740814E-01  4.5793864E-01  1.6465322E-01  0.0000000E+00  0.0000000E+00  2.1438652E-02  3.4222526E-01  2.1895995E-01  2.9600000E-13  2.9082185E-01 -1.3750587E+04
 5.0000002E-04 -5.0000000E-01 -5.0000000E-01  2.7000000E+06  1.0000000E+00  0.0000000E+00  1.0000000E+00  0.0000000E+00  0.0000000E+00  0.0000000E+00  0.0000000E+00  1.0000000E+00  1.0000000E+00  2.9600000E-13  3.0000000E-01  0.0000000E+00



ZONE T= " 3.73100000E+03", F=POINT I=    11
 5.0999999E-02 -5.0000000E-01 -5.0000000E-01  2.7083176E+06  4.4661620E-01  3.2876038E-01  5.6422816E-01  1.0701146E-01  0.0000000E+00  0.0000000E+00  3.9770517E-03  5.4902486E-01  2.7964472E-01  2.9600000E-13  2.9028571E-01 -9.0026046E+03
 1.5099999E-01 -5.0000000E-01 -5.0000000E-01  2.7116962E+06  4.6138450E-01  3.4967483E-01  4.9551436E-01  1.5481082E-01  0.0000000E+00  0.0000000E+00  1.5213481E-02  3.8819752E-01  2.5234160E-01  2.9600000E-13  2.9029552E-01 -1.2479820E+04
 2.5099999E-01 -5.0000000E-01 -5.0000000E-01  2.7141371E+06  4.7194504E-01  3.5390024E-01  4.7866283E-01  1.6743693E-01  0.0000000E+00  0.0000000E+00  2.0070799E-02  3.5116518E-01  2.4705067E-01  2.9600000E-13  2.9030261E-01 -1.3489298E+04
 3.5100001E-01 -5.0000000E-01 -5.0000000E-01  2.7162444E+06  4.8099058E-01  3.5695065E-01  4.7236935E-01  1.7068000E-01  0.0000000E+00  0.0000000E+00  2.1691871E-02  3.4062866E-01  2.4327735E-01  2.9600000E-13  2.9030872E-01 -1.3798053E+04
 4.5100001E-01 -5.0000000E-01 -5.0000000E-01  2.7181085E+06  4.8893885E-01  3.5928747E-01  4.6897733E-01  1.7173521E-01  0.0000000E+00  0.0000000E+00  2.2392667E-02  3.3629908E-01  2.4041289E-01  2.9600000E-13  2.9031413E-01 -1.3928037E+04
 5.5100000E-01 -5.0000000E-01 -5.0000000E-01  2.7197180E+06  4.9576171E-01  3.6113624E-01  4.6663561E-01  1.7222815E-01  0.0000000E+00  0.0000000E+00  2.2814343E-02  3.3375467E-01  2.3816266E-01  2.9600000E-13  2.9031881E-01 -1.4005308E+04
 6.5100002E-01 -5.0000000E-01 -5.0000000E-01  2.7210456E+06  5.0136256E-01  3.6255248E-01  4.6491721E-01  1.7253031E-01  0.0000000E+00  0.0000000E+00  2.3109844E-02  3.3199779E-01  2.3644842E-01  2.9600000E-13  2.9032266E-01 -1.4059052E+04
 7.5099999E-01 -5.0000000E-01 -5.0000000E-01  2.7220656E+06  5.0564911E-01  3.6355485E-01  4.6370899E-01  1.7273616E-01  0.0000000E+00  0.0000000E+00  2.3317826E-02  3.3077387E-01  2.3524011E-01  2.9600000E-13  2.9032562E-01 -1.4096682E+04
 8.5100001E-01 -5.0000000E-01 -5.0000000E-01  2.7227574E+06  5.0854863E-01  3.6416988E-01  4.6295594E-01  1.7287418E-01  0.0000000E+00  0.0000000E+00  2.3451530E-02  3.2999248E-01  2.3450077E-01  2.9600000E-13  2.9032763E-01 -1.4120789E+04
 9.5099998E-01 -5.0000000E-01 -5.0000000E-01  2.7231070E+06  5.1001128E-01  3.6438495E-01  4.6264971E-01  1.7296534E-01  0.0000000E+00  0.0000000E+00  2.3517347E-02  3.2960938E-01  2.3424260E-01  2.9600000E-13  2.9032865E-01 -1.4132632E+04
 5.0000002E-04 -5.0000000E-01 -5.0000000E-01  2.7000000E+06  1.0000000E+00  0.0000000E+00  1.0000000E+00  0.0000000E+00  0.0000000E+00  0.0000000E+00  0.0000000E+00  1.0000000E+00  1.0000000E+00  2.9600000E-13  3.0000000E-01  0.0000000E+00



ZONE T= " 9.87500000E+03", F=POINT I=    11
 5.0999999E-02 -5.0000000E-01 -5.0000000E-01  2.7064694E+06  4.3846134E-01  3.0285839E-01  6.1954172E-01  7.7599892E-02  0.0000000E+00  0.0000000E+00  1.1171942E-03  6.6650453E-01  3.1610194E-01  2.9600000E-13  2.9028035E-01 -6.9693535E+03
 1.5099999E-01 -5.0000000E-01 -5.0000000E-01  2.7077104E+06  4.4394324E-01  3.4936624E-01  5.3734940E-01  1.1328435E-01  0.0000000E+00  0.0000000E+00  5.3712710E-03  5.1612625E-01  2.5273093E-01  2.9600000E-13  2.9028395E-01 -9.6287201E+03
 2.5099999E-01 -5.0000000E-01 -5.0000000E-01  2.7081879E+06  4.4604572E-01  3.5334720E-01  5.0681489E-01  1.3983791E-01  0.0000000E+00  0.0000000E+00  1.1091064E-02  4.2910925E-01  2.4773892E-01  2.9600000E-13  2.9028534E-01 -1.1477601E+04
 3.5100001E-01 -5.0000000E-01 -5.0000000E-01  2.7084034E+06  4.4699366E-01  3.5620263E-01  4.8808061E-01  1.5571676E-01  0.0000000E+00  0.0000000E+00  1.6027335E-02  3.8130697E-01  2.4419906E-01  2.9600000E-13  2.9028596E-01 -1.2659519E+04
 4.5100001E-01 -5.0000000E-01 -5.0000000E-01  2.7085166E+06  4.4749126E-01  3.5836987E-01  4.7714850E-01  1.6448163E-01  0.0000000E+00  0.0000000E+00  1.9373881E-02  3.5593901E-01  2.4153498E-01  2.9600000E-13  2.9028629E-01 -1.3352783E+04
 5.5100000E-01 -5.0000000E-01 -5.0000000E-01  2.7085834E+06  4.4778453E-01  3.6007284E-01  4.7089540E-01  1.6903176E-01  0.0000000E+00  0.0000000E+00  2.1354062E-02  3.4276253E-01  2.3945525E-01  2.9600000E-13  2.9028648E-01 -1.3734670E+04
 6.5100002E-01 -5.0000000E-01 -5.0000000E-01  2.7086260E+06  4.4797195E-01  3.6136914E-01  4.6730330E-01  1.7132756E-01  0.0000000E+00  0.0000000E+00  2.2456476E-02  3.3591119E-01  2.3788019E-01  2.9600000E-13  2.9028661E-01 -1.3939775E+04
 7.5099999E-01 -5.0000000E-01 -5.0000000E-01  2.7086541E+06  4.4809506E-01  3.6227962E-01  4.6524026E-01  1.7248013E-01  0.0000000E+00  0.0000000E+00  2.3056090E-02  3.3231580E-01  2.3677805E-01  2.9600000E-13  2.9028669E-01 -1.4049300E+04
 8.5100001E-01 -5.0000000E-01 -5.0000000E-01  2.7086715E+06  4.4817148E-01  3.6283244E-01  4.6411657E-01  1.7305099E-01  0.0000000E+00  0.0000000E+00  2.3369727E-02  3.3047005E-01  2.3611052E-01  2.9600000E-13  2.9028674E-01 -1.4106048E+04
 9.5099998E-01 -5.0000000E-01 -5.0000000E-01  2.7086799E+06  4.4820844E-01  3.6301610E-01  4.6367392E-01  1.7330998E-01  0.0000000E+00  0.0000000E+00  2.3505109E-02  3.2968053E-01  2.3588904E-01  2.9600000E-13  2.9028676E-01 -1.4130432E+04
 5.0000002E-04 -5.0000000E-01 -5.0000000E-01  2.7000000E+06  1.0000000E+00  0.0000000E+00  1.0000000E+00  0.0000000E+00  0.0000000E+00  0.0000000E+00  0.0000000E+00  1.0000000E+00  1.0000000E+00  2.9600000E-13  3.0000000E-01  0.0000000E+00



ZONE T= " 3.44510000E+04", F=POINT I=    11
 5.0999999E-02 -5.0000000E-01 -5.0000000E-01  2.7059873E+06  4.3632509E-01  2.0381058E-01  7.2304772E-01  7.3141704E-02  0.0000000E+00  0.0000000E+00  5.4462661E-04  7.1838014E-01  4.8459224E-01  2.9600000E-13  2.9027895E-01 -6.1319744E+03
 1.5099999E-01 -5.0000000E-01 -5.0000000E-01  2.7071377E+06  4.4141656E-01  3.4953459E-01  5.6499750E-01  8.5467911E-02  0.0000000E+00  0.0000000E+00  2.0283796E-03  6.1561633E-01  2.5251848E-01  2.9600000E-13  2.9028229E-01 -7.8193250E+03
 2.5099999E-01 -5.0000000E-01 -5.0000000E-01  2.7077739E+06  4.4422306E-01  3.5342461E-01  5.4043927E-01  1.0613612E-01  0.0000000E+00  0.0000000E+00  4.3954837E-03  5.3828950E-01  2.4764251E-01  2.9600000E-13  2.9028413E-01 -9.2034030E+03
 3.5100001E-01 -5.0000000E-01 -5.0000000E-01  2.7081161E+06  4.4572983E-01  3.5622867E-01  5.2180190E-01  1.2196943E-01  0.0000000E+00  0.0000000E+00  7.1410121E-03  4.8318894E-01  2.4416694E-01  2.9600000E-13  2.9028513E-01 -1.0291336E+04
 4.5100001E-01 -5.0000000E-01 -5.0000000E-01  2.7083182E+06  4.4661880E-01  3.5837907E-01  5.0711394E-01  1.3450699E-01  0.0000000E+00  0.0000000E+00  1.0007277E-02  4.4206241E-01  2.4152371E-01  2.9600000E-13  2.9028571E-01 -1.1180638E+04
 5.5100000E-01 -5.0000000E-01 -5.0000000E-01  2.7084431E+06  4.4716813E-01  3.6007557E-01  4.9564942E-01  1.4427501E-01  0.0000000E+00  0.0000000E+00  1.2726544E-02  4.1149815E-01  2.3945192E-01  2.9600000E-13  2.9028608E-01 -1.1896289E+04
 6.5100002E-01 -5.0000000E-01 -5.0000000E-01  2.7085218E+06  4.4751402E-01  3.6136906E-01  4.8702907E-01  1.5160187E-01  0.0000000E+00  0.0000000E+00  1.5074575E-02  3.8940640E-01  2.3788028E-01  2.9600000E-13  2.9028630E-01 -1.2448645E+04
 7.5099999E-01 -5.0000000E-01 -5.0000000E-01  2.7085709E+06  4.4772968E-01  3.6227816E-01  4.8093887E-01  1.5678297E-01  0.0000000E+00  0.0000000E+00  1.6904553E-02  3.7422348E-01  2.3677981E-01  2.9600000E-13  2.9028645E-01 -1.2847929E+04
 8.5100001E-01 -5.0000000E-01 -5.0000000E-01  2.7085996E+06  4.4785587E-01  3.6283029E-01  4.7708860E-01  1.6008111E-01  0.0000000E+00  0.0000000E+00  1.8143808E-02  3.6476341E-01  2.3611312E-01  2.9600000E-13  2.9028653E-01 -1.3105674E+04
 9.5099998E-01 -5.0000000E-01 -5.0000000E-01  2.7086129E+06  4.4791447E-01  3.6301368E-01  4.7528353E-01  1.6170279E-01  0.0000000E+00  0.0000000E+00  1.8767113E-02  3.6022569E-01  2.3589195E-01  2.9600000E-13  2.9028657E-01 -1.3231912E+04
 5.0000002E-04 -5.0000000E-01 -5.0000000E-01  2.7000000E+06  1.0000000E+00  0.0000000E+00  1.0000000E+00  0.0000000E+00  0.0000000E+00  0.0000000E+00  0.0000000E+00  1.0000000E+00  1.0000000E+00  2.9600000E-13  3.0000000E-01  0.0000000E+00



ZONE T= " 8.36030000E+04", F=POINT I=    11
 5.0999999E-02 -5.0000000E-01 -5.0000000E-01  2.7053702E+06  4.3358484E-01  2.4495602E-02  9.0164501E-01  7.3859384E-02  0.0000000E+00  0.0000000E+00  2.5377338E-04  7.6345499E-01  9.2462290E-01  2.9600000E-13  2.9027716E-01 -5.4144065E+03
 1.5099999E-01 -5.0000000E-01 -5.0000000E-01  2.7064972E+06  4.3858434E-01  3.4974645E-01  5.8082819E-01  6.9425362E-02  0.0000000E+00  0.0000000E+00  9.5853891E-04  6.7839681E-01  2.5225129E-01  2.9600000E-13  2.9028043E-01 -6.7754133E+03
 2.5099999E-01 -5.0000000E-01 -5.0000000E-01  2.7072447E+06  4.4188878E-01  3.5362685E-01  5.5999757E-01  8.6375577E-02  0.0000000E+00  0.0000000E+00  2.1529999E-03  6.1011616E-01  2.4739073E-01  2.9600000E-13  2.9028260E-01 -7.9135862E+03
 3.5100001E-01 -5.0000000E-01 -5.0000000E-01  2.7076762E+06  4.4379245E-01  3.5630781E-01  5.4492720E-01  9.8764984E-02  0.0000000E+00  0.0000000E+00  3.4862809E-03  5.6282736E-01  2.4406932E-01  2.9600000E-13  2.9028385E-01 -8.7489902E+03
 4.5100001E-01 -5.0000000E-01 -5.0000000E-01  2.7079543E+06  4.4501760E-01  3.5841385E-01  5.3299223E-01  1.0859392E-01  0.0000000E+00  0.0000000E+00  4.8794324E-03  5.2685000E-01  2.4148112E-01  2.9600000E-13  2.9028466E-01 -9.4210372E+03
 5.5100000E-01 -5.0000000E-01 -5.0000000E-01  2.7081424E+06  4.4584563E-01  3.6009131E-01  5.2336067E-01  1.1654802E-01  0.0000000E+00  0.0000000E+00  6.2540360E-03  4.9873671E-01  2.3943276E-01  2.9600000E-13  2.9028520E-01 -9.9736465E+03
 6.5100002E-01 -5.0000000E-01 -5.0000000E-01  2.7082713E+06  4.4641292E-01  3.6137597E-01  5.1574791E-01  1.2287612E-01  0.0000000E+00  0.0000000E+00  7.5200580E-03  4.7702945E-01  2.3787190E-01  2.9600000E-13  2.9028558E-01 -1.0419812E+04
 7.5099999E-01 -5.0000000E-01 -5.0000000E-01  2.7083579E+06  4.4679364E-01  3.6228093E-01  5.1006715E-01  1.2765192E-01  0.0000000E+00  0.0000000E+00  8.5821463E-03  4.6105622E-01  2.3677646E-01  2.9600000E-13  2.9028583E-01 -1.0760431E+04
 8.5100001E-01 -5.0000000E-01 -5.0000000E-01  2.7084116E+06  4.4702981E-01  3.6283131E-01  5.0629540E-01  1.3087329E-01  0.0000000E+00  0.0000000E+00  9.3512235E-03  4.5049969E-01  2.3611189E-01  2.9600000E-13  2.9028598E-01 -1.0991834E+04
 9.5099998E-01 -5.0000000E-01 -5.0000000E-01  2.7084376E+06  4.4714384E-01  3.6301433E-01  5.0446712E-01  1.3251855E-01  0.0000000E+00  0.0000000E+00  9.7567082E-03  4.4522760E-01  2.3589117E-01  2.9600000E-13  2.9028606E-01 -1.1109396E+04
 5.0000002E-04 -5.0000000E-01 -5.0000000E-01  2.7000000E+06  1.0000000E+00  0.0000000E+00  1.0000000E+00  0.0000000E+00  0.0000000E+00  0.0000000E+00  0.0000000E+00  1.0000000E+00  1.0000000E+00  2.9600000E-13  3.0000000E-01  0.0000000E+00



ZONE T= " 9.99870000E+04", F=POINT I=    11
 5.0999999E-02 -5.0000000E-01 -5.0000000E-01  2.7046736E+06  6.9943980E-01  0.0000000E+00  9.3943837E-01  6.0561629E-02  0.0000000E+00  0.0000000E+00  9.7926028E-05  8.0742255E-01  1.0000000E+00  2.9600000E-13  2.9027513E-01 -4.7097961E+03