Variables = x  y  z  P  T  S_hyd  S_aqu  S_gas  S_icd  X_inh  k_rg  k_rw  k_adj_F  perm_abs  porosity  P_cap
ZONE T= " 8.64000000E+05", F=POINT I=  2500
 5.0000000E-01  5.0000000E-01 -5.0000000E+00  5.7542714E+06  7.8729787E+00  4.0946646E-01  4.3454479E-01  1.5598875E-01  0.0000000E+00  0.0000000E+00  2.1355807E-02  3.4275143E-01  1.8420318E-01  2.9600000E-13  2.8895905E-01 -2.4592481E+04
 5.0000000E-01  1.5000000E+00 -5.0000000E+00  6.1383348E+06  8.4977339E+00  5.0715734E-01  3.6420443E-01  1.2863824E-01  0.0000000E+00  0.0000000E+00  2.0543397E-02  3.4801423E-01  1.0129256E-01  2.9600000E-13  2.9007097E-01 -2.9955895E+04
 5.0000000E-01  2.5000000E+00 -5.0000000E+00  6.4611707E+06  8.9874987E+00  5.3578545E-01  3.4369524E-01  1.2051931E-01  0.0000000E+00  0.0000000E+00  2.0189258E-02  3.5036899E-01  8.2890591E-02  2.9600000E-13  2.9100893E-01 -3.1976796E+04
 5.0000000E-01  3.5000000E+00 -5.0000000E+00  6.7135337E+06  9.3500683E+00  5.4828549E-01  3.3497746E-01  1.1673705E-01  0.0000000E+00  0.0000000E+00  1.9890255E-02  3.5238706E-01  7.5610437E-02  2.9600000E-13  2.9174426E-01 -3.2884995E+04
 5.0000000E-01  4.5000000E+00 -5.0000000E+00  6.9156398E+06  9.6286239E+00  5.5550771E-01  3.3005163E-01  1.1444066E-01  0.0000000E+00  0.0000000E+00  1.9649164E-02  3.5403473E-01  7.1605230E-02  2.9600000E-13  2.9233449E-01 -3.3403438E+04
 5.0000000E-01  5.5000000E+00 -5.0000000E+00  7.0830420E+06  9.8518993E+00  5.6042312E-01  3.2675090E-01  1.1282598E-01  0.0000000E+00  0.0000000E+00  1.9452654E-02  3.5539156E-01  6.8961818E-02  2.9600000E-13  2.9282427E-01 -3.3751290E+04
 5.0000000E-01  6.5000000E+00 -5.0000000E+00  7.2255490E+06  1.0036927E+01  5.6409879E-01  3.2430861E-01  1.1159260E-01  0.0000000E+00  0.0000000E+00  1.9289098E-02  3.5653051E-01  6.7028210E-02  2.9600000E-13  2.9324186E-01 -3.4008785E+04
 5.0000000E-01  7.5000000E+00 -5.0000000E+00  7.3494119E+06  1.0194143E+01  5.6701149E-01  3.2238727E-01  1.1060124E-01  0.0000000E+00  0.0000000E+00  1.9150301E-02  3.5750403E-01  6.5521890E-02  2.9600000E-13  2.9360531E-01 -3.4211576E+04
 5.0000000E-01  8.5000000E+00 -5.0000000E+00  7.4587903E+06  1.0330291E+01  5.6941001E-01  3.2081304E-01  1.0977695E-01  0.0000000E+00  0.0000000E+00  1.9030621E-02  3.5834867E-01  6.4298565E-02  2.9600000E-13  2.9392662E-01 -3.4378045E+04
 5.0000000E-01  9.5000000E+00 -5.0000000E+00  7.5565746E+06  1.0449946E+01  5.7143915E-01  3.1948590E-01  1.0907495E-01  0.0000000E+00  0.0000000E+00  1.8926099E-02  3.5909033E-01  6.3275602E-02  2.9600000E-13  2.9421418E-01 -3.4518753E+04
 5.0000000E-01  1.0500000E+01 -5.0000000E+00  7.6448492E+06  1.0556342E+01  5.7319020E-01  3.1834335E-01  1.0846645E-01  0.0000000E+00  0.0000000E+00  1.8833880E-02  3.5974782E-01  6.2401604E-02  2.9600000E-13  2.9447401E-01 -3.4640277E+04
 5.0000000E-01  1.1500000E+01 -5.0000000E+00  7.7251652E+06  1.0651843E+01  5.7472429E-01  3.1734390E-01  1.0793180E-01  0.0000000E+00  0.0000000E+00  1.8751842E-02  3.6033520E-01  6.1642542E-02  2.9600000E-13  2.9471061E-01 -3.4746970E+04
 5.0000000E-01  1.2500000E+01 -5.0000000E+00  7.7987076E+06  1.0738225E+01  5.7608428E-01  3.1645867E-01  1.0745705E-01  0.0000000E+00  0.0000000E+00  1.8678375E-02  3.6086322E-01  6.0974794E-02  2.9600000E-13  2.9492743E-01 -3.4841851E+04
 5.0000000E-01  1.3500000E+01 -5.0000000E+00  7.8664018E+06  1.0816859E+01  5.7730138E-01  3.1566675E-01  1.0703188E-01  0.0000000E+00  0.0000000E+00  1.8612223E-02  3.6134029E-01  6.0381312E-02  2.9600000E-13  2.9512715E-01 -3.4927099E+04
 5.0000000E-01  1.4500000E+01 -5.0000000E+00  7.9289842E+06  1.0888819E+01  5.7839897E-01  3.1495255E-01  1.0664848E-01  0.0000000E+00  0.0000000E+00  1.8552389E-02  3.6177313E-01  5.9849414E-02  2.9600000E-13  2.9531190E-01 -3.5004332E+04
 5.0000000E-01  1.5500000E+01 -5.0000000E+00  7.9870505E+06  1.0954966E+01  5.7939507E-01  3.1430415E-01  1.0630079E-01  0.0000000E+00  0.0000000E+00  1.8498070E-02  3.6216719E-01  5.9369415E-02  2.9600000E-13  2.9548343E-01 -3.5074783E+04
 5.0000000E-01  1.6500000E+01 -5.0000000E+00  8.0410892E+06  1.1015996E+01  5.8030380E-01  3.1371223E-01  1.0598398E-01  0.0000000E+00  0.0000000E+00  1.8448604E-02  3.6252696E-01  5.8933760E-02  2.9600000E-13  2.9564315E-01 -3.5139415E+04
 5.0000000E-01  1.7500000E+01 -5.0000000E+00  8.0915063E+06  1.1072485E+01  5.8113646E-01  3.1316937E-01  1.0569417E-01  0.0000000E+00  0.0000000E+00  1.8403442E-02  3.6285621E-01  5.8536447E-02  2.9600000E-13  2.9579224E-01 -3.5198987E+04
 5.0000000E-01  1.8500000E+01 -5.0000000E+00  8.1386422E+06  1.1124908E+01  5.8190224E-01  3.1266959E-01  1.0542818E-01  0.0000000E+00  0.0000000E+00  1.8362120E-02  3.6315810E-01  5.8172634E-02  2.9600000E-13  2.9593170E-01 -3.5254112E+04
 5.0000000E-01  1.9500000E+01 -5.0000000E+00  8.1827856E+06  1.1173666E+01  5.8260866E-01  3.1220797E-01  1.0518337E-01  0.0000000E+00  0.0000000E+00  1.8324245E-02  3.6343535E-01  5.7838355E-02  2.9600000E-13  2.9606236E-01 -3.5305290E+04
 5.0000000E-01  2.0500000E+01 -5.0000000E+00  8.2241835E+06  1.1219100E+01  5.8326201E-01  3.1178045E-01  1.0495754E-01  0.0000000E+00  0.0000000E+00  1.8289478E-02  3.6369031E-01  5.7530332E-02  2.9600000E-13  2.9618495E-01 -3.5352933E+04
 5.0000000E-01  2.1500000E+01 -5.0000000E+00  8.2630482E+06  1.1261499E+01  5.8386758E-01  3.1138362E-01  1.0474881E-01  0.0000000E+00  0.0000000E+00  1.8257526E-02  3.6392502E-01  5.7245817E-02  2.9600000E-13  2.9630008E-01 -3.5397384E+04
 5.0000000E-01  2.2500000E+01 -5.0000000E+00  8.2995640E+06  1.1301114E+01  5.8442983E-01  3.1101460E-01  1.0455558E-01  0.0000000E+00  0.0000000E+00  1.8228133E-02  3.6414126E-01  5.6982493E-02  2.9600000E-13  2.9640830E-01 -3.5438930E+04
 5.0000000E-01  2.3500000E+01 -5.0000000E+00  8.3338918E+06  1.1338161E+01  5.8495259E-01  3.1067094E-01  1.0437646E-01  0.0000000E+00  0.0000000E+00  1.8201075E-02  3.6434061E-01  5.6738387E-02  2.9600000E-13  2.9651007E-01 -3.5477818E+04
 5.0000000E-01  2.4500000E+01 -5.0000000E+00  8.3661726E+06  1.1372829E+01  5.8543917E-01  3.1035055E-01  1.0421028E-01  0.0000000E+00  0.0000000E+00  1.8176153E-02  3.6452446E-01  5.6511807E-02  2.9600000E-13  2.9660580E-01 -3.5514254E+04
 5.0000000E-01  2.5500000E+01 -5.0000000E+00  8.3965305E+06  1.1405283E+01  5.8589242E-01  3.1005160E-01  1.0405598E-01  0.0000000E+00  0.0000000E+00  1.8153190E-02  3.6469406E-01  5.6301290E-02  2.9600000E-13  2.9669586E-01 -3.5548417E+04
 5.0000000E-01  2.6500000E+01 -5.0000000E+00  8.4250756E+06  1.1435668E+01  5.8631482E-01  3.0977253E-01  1.0391265E-01  0.0000000E+00  0.0000000E+00  1.8132030E-02  3.6485052E-01  5.6105571E-02  2.9600000E-13  2.9678056E-01 -3.5580463E+04
 5.0000000E-01  2.7500000E+01 -5.0000000E+00  8.4519056E+06  1.1464112E+01  5.8670856E-01  3.0951195E-01  1.0377949E-01  0.0000000E+00  0.0000000E+00  1.8112533E-02  3.6499483E-01  5.5923541E-02  2.9600000E-13  2.9686020E-01 -3.5610524E+04
 5.0000000E-01  2.8500000E+01 -5.0000000E+00  8.4771076E+06  1.1490731E+01  5.8707556E-01  3.0926866E-01  1.0365578E-01  0.0000000E+00  0.0000000E+00  1.8094572E-02  3.6512789E-01  5.5754232E-02  2.9600000E-13  2.9693502E-01 -3.5638718E+04
 5.0000000E-01  2.9500000E+01 -5.0000000E+00  8.5007594E+06  1.1515624E+01  5.8741750E-01  3.0904161E-01  1.0354089E-01  0.0000000E+00  0.0000000E+00  1.8078034E-02  3.6525052E-01  5.5596790E-02  2.9600000E-13  2.9700526E-01 -3.5665146E+04
 5.0000000E-01  3.0500000E+01 -5.0000000E+00  8.5229309E+06  1.1538883E+01  5.8773588E-01  3.0882985E-01  1.0343427E-01  0.0000000E+00  0.0000000E+00  1.8062818E-02  3.6536344E-01  5.5450461E-02  2.9600000E-13  2.9707112E-01 -3.5689898E+04
 5.0000000E-01  3.1500000E+01 -5.0000000E+00  8.5436847E+06  1.1560587E+01  5.8803203E-01  3.0863256E-01  1.0333541E-01  0.0000000E+00  0.0000000E+00  1.8048830E-02  3.6546732E-01  5.5314580E-02  2.9600000E-13  2.9713278E-01 -3.5713053E+04
 5.0000000E-01  3.2500000E+01 -5.0000000E+00  8.5630770E+06  1.1580809E+01  5.8830714E-01  3.0844901E-01  1.0324386E-01  0.0000000E+00  0.0000000E+00  1.8035987E-02  3.6556276E-01  5.5188552E-02  2.9600000E-13  2.9719040E-01 -3.5734681E+04
 5.0000000E-01  3.3500000E+01 -5.0000000E+00  8.5811587E+06  1.1599615E+01  5.8856226E-01  3.0827853E-01  1.0315921E-01  0.0000000E+00  0.0000000E+00  1.8024215E-02  3.6565030E-01  5.5071852E-02  2.9600000E-13  2.9724415E-01 -3.5754843E+04
 5.0000000E-01  3.4500000E+01 -5.0000000E+00  8.5979752E+06  1.1617061E+01  5.8879833E-01  3.0812054E-01  1.0308112E-01  0.0000000E+00  0.0000000E+00  1.8013444E-02  3.6573044E-01  5.4964011E-02  2.9600000E-13  2.9729414E-01 -3.5773593E+04
 5.0000000E-01  3.5500000E+01 -5.0000000E+00  8.6135679E+06  1.1633200E+01  5.8901620E-01  3.0797454E-01  1.0300926E-01  0.0000000E+00  0.0000000E+00  1.8003614E-02  3.6580361E-01  5.4864611E-02  2.9600000E-13  2.9734050E-01 -3.5790980E+04
 5.0000000E-01  3.6500000E+01 -5.0000000E+00  8.6279735E+06  1.1648079E+01  5.8921662E-01  3.0784005E-01  1.0294333E-01  0.0000000E+00  0.0000000E+00  1.7994669E-02  3.6587024E-01  5.4773280E-02  2.9600000E-13  2.9738333E-01 -3.5807048E+04
 5.0000000E-01  3.7500000E+01 -5.0000000E+00  8.6412255E+06  1.1661739E+01  5.8940026E-01  3.0771666E-01  1.0288308E-01  0.0000000E+00  0.0000000E+00  1.7986558E-02  3.6593067E-01  5.4689686E-02  2.9600000E-13  2.9742274E-01 -3.5821833E+04
 5.0000000E-01  3.8500000E+01 -5.0000000E+00  8.6533536E+06  1.1674219E+01  5.8956770E-01  3.0760401E-01  1.0282828E-01  0.0000000E+00  0.0000000E+00  1.7979236E-02  3.6598524E-01  5.4613534E-02  2.9600000E-13  2.9745882E-01 -3.5835370E+04
 5.0000000E-01  3.9500000E+01 -5.0000000E+00  8.6643844E+06  1.1685551E+01  5.8971950E-01  3.0750177E-01  1.0277873E-01  0.0000000E+00  0.0000000E+00  1.7972664E-02  3.6603425E-01  5.4544562E-02  2.9600000E-13  2.9749163E-01 -3.5847688E+04
 5.0000000E-01  4.0500000E+01 -5.0000000E+00  8.6743419E+06  1.1695765E+01  5.8985611E-01  3.0740966E-01  1.0273423E-01  0.0000000E+00  0.0000000E+00  1.7966804E-02  3.6607796E-01  5.4482539E-02  2.9600000E-13  2.9752126E-01 -3.5858814E+04
 5.0000000E-01  4.1500000E+01 -5.0000000E+00  8.6832469E+06  1.1704888E+01  5.8997795E-01  3.0732742E-01  1.0269463E-01  0.0000000E+00  0.0000000E+00  1.7961624E-02  3.6611660E-01  5.4427261E-02  2.9600000E-13  2.9754775E-01 -3.5868771E+04
 5.0000000E-01  4.2500000E+01 -5.0000000E+00  8.6911181E+06  1.1712942E+01  5.9008539E-01  3.0725483E-01  1.0265978E-01  0.0000000E+00  0.0000000E+00  1.7957097E-02  3.6615039E-01  5.4378550E-02  2.9600000E-13  2.9757117E-01 -3.5877579E+04
 5.0000000E-01  4.3500000E+01 -5.0000000E+00  8.6979714E+06  1.1719947E+01  5.9017873E-01  3.0719170E-01  1.0262957E-01  0.0000000E+00  0.0000000E+00  1.7953198E-02  3.6617950E-01  5.4336253E-02  2.9600000E-13  2.9759157E-01 -3.5885254E+04
 5.0000000E-01  4.4500000E+01 -5.0000000E+00  8.7038208E+06  1.1725921E+01  5.9025825E-01  3.0713787E-01  1.0260388E-01  0.0000000E+00  0.0000000E+00  1.7949905E-02  3.6620408E-01  5.4300236E-02  2.9600000E-13  2.9760898E-01 -3.5891812E+04
 5.0000000E-01  4.5500000E+01 -5.0000000E+00  8.7086779E+06  1.1730877E+01  5.9032417E-01  3.0709320E-01  1.0258263E-01  0.0000000E+00  0.0000000E+00  1.7947199E-02  3.6622429E-01  5.4270389E-02  2.9600000E-13  2.9762343E-01 -3.5897265E+04
 5.0000000E-01  4.6500000E+01 -5.0000000E+00  8.7125522E+06  1.1734829E+01  5.9037669E-01  3.0705758E-01  1.0256574E-01  0.0000000E+00  0.0000000E+00  1.7945065E-02  3.6624022E-01  5.4246622E-02  2.9600000E-13  2.9763496E-01 -3.5901622E+04
 5.0000000E-01  4.7500000E+01 -5.0000000E+00  8.7154515E+06  1.1737784E+01  5.9041593E-01  3.0703092E-01  1.0255315E-01  0.0000000E+00  0.0000000E+00  1.7943489E-02  3.6625199E-01  5.4228864E-02  2.9600000E-13  2.9764359E-01 -3.5904890E+04
 5.0000000E-01  4.8500000E+01 -5.0000000E+00  8.7173812E+06  1.1739751E+01  5.9044202E-01  3.0701317E-01  1.0254481E-01  0.0000000E+00  0.0000000E+00  1.7942458E-02  3.6625970E-01  5.4217060E-02  2.9600000E-13  2.9764934E-01 -3.5907072E+04
 5.0000000E-01  4.9500000E+01 -5.0000000E+00  8.7183452E+06  1.1740733E+01  5.9045503E-01  3.0700430E-01  1.0254067E-01  0.0000000E+00  0.0000000E+00  1.7941956E-02  3.6626344E-01  5.4211177E-02  2.9600000E-13  2.9765220E-01 -3.5908168E+04
 1.5000000E+00  5.0000000E-01 -5.0000000E+00  6.1383348E+06  8.4977339E+00  5.0715736E-01  3.6420441E-01  1.2863823E-01  0.0000000E+00  0.0000000E+00  2.0543397E-02  3.4801423E-01  1.0129255E-01  2.9600000E-13  2.9007097E-01 -2.9955897E+04
 1.5000000E+00  1.5000000E+00 -5.0000000E+00  6.3440329E+06  8.8132940E+00  5.2631078E-01  3.5038210E-01  1.2330711E-01  0.0000000E+00  0.0000000E+00  2.0364782E-02  3.4919715E-01  8.8709762E-02  2.9600000E-13  2.9066825E-01 -3.1302410E+04
 1.5000000E+00  2.5000000E+00 -5.0000000E+00  6.5713645E+06  9.1479025E+00  5.4099001E-01  3.4004250E-01  1.1896749E-01  0.0000000E+00  0.0000000E+00  2.0078986E-02  3.5111002E-01  7.9805152E-02  2.9600000E-13  2.9132978E-01 -3.2354606E+04
 1.5000000E+00  3.5000000E+00 -5.0000000E+00  6.7777273E+06  9.4396445E+00  5.5033075E-01  3.3358341E-01  1.1608585E-01  0.0000000E+00  0.0000000E+00  1.9822075E-02  3.5285114E-01  7.4461436E-02  2.9600000E-13  2.9193160E-01 -3.3029933E+04
 1.5000000E+00  4.5000000E+00 -5.0000000E+00  6.9566462E+06  9.6839254E+00  5.5657107E-01  3.2934055E-01  1.1408838E-01  0.0000000E+00  0.0000000E+00  1.9605249E-02  3.5433686E-01  7.1027751E-02  2.9600000E-13  2.9245439E-01 -3.3477267E+04
 1.5000000E+00  5.5000000E+00 -5.0000000E+00  7.1112654E+06  9.8889047E+00  5.6107660E-01  3.2631822E-01  1.1260518E-01  0.0000000E+00  0.0000000E+00  1.9422857E-02  3.5559841E-01  6.8615368E-02  2.9600000E-13  2.9290693E-01 -3.3796361E+04
 1.5000000E+00  6.5000000E+00 -5.0000000E+00  7.2460935E+06  1.0063231E+01  5.6454169E-01  3.2401675E-01  1.1144156E-01  0.0000000E+00  0.0000000E+00  1.9267904E-02  3.5667875E-01  6.6797685E-02  2.9600000E-13  2.9330212E-01 -3.4039385E+04
 1.5000000E+00  7.5000000E+00 -5.0000000E+00  7.3650075E+06  1.0213707E+01  5.6733088E-01  3.2217725E-01  1.1049187E-01  0.0000000E+00  0.0000000E+00  1.9134632E-02  3.5761433E-01  6.5358102E-02  2.9600000E-13  2.9365110E-01 -3.4233765E+04
 1.5000000E+00  8.5000000E+00 -5.0000000E+00  7.4710149E+06  1.0345355E+01  5.6965042E-01  3.2065509E-01  1.0969449E-01  0.0000000E+00  0.0000000E+00  1.9018673E-02  3.5843326E-01  6.4176791E-02  2.9600000E-13  2.9396256E-01 -3.4394867E+04
 1.5000000E+00  9.5000000E+00 -5.0000000E+00  7.5664005E+06  1.0461865E+01  5.7162596E-01  3.1936316E-01  1.0901088E-01  0.0000000E+00  0.0000000E+00  1.8916758E-02  3.5915680E-01  6.3181972E-02  2.9600000E-13  2.9424309E-01 -3.4531927E+04
 1.5000000E+00  1.0500000E+01 -5.0000000E+00  7.6529074E+06  1.0565980E+01  5.7333900E-01  3.1824554E-01  1.0841546E-01  0.0000000E+00  0.0000000E+00  1.8826427E-02  3.5980109E-01  6.2327706E-02  2.9600000E-13  2.9449774E-01 -3.4650855E+04
 1.5000000E+00  1.1500000E+01 -5.0000000E+00  7.7318832E+06  1.0659776E+01  5.7484519E-01  3.1726437E-01  1.0789044E-01  0.0000000E+00  0.0000000E+00  1.8745797E-02  3.6037858E-01  6.1582986E-02  2.9600000E-13  2.9473041E-01 -3.4755634E+04
 1.5000000E+00  1.2500000E+01 -5.0000000E+00  7.8043851E+06  1.0744852E+01  5.7618413E-01  3.1639292E-01  1.0742296E-01  0.0000000E+00  0.0000000E+00  1.8673403E-02  3.6089903E-01  6.0925962E-02  2.9600000E-13  2.9494418E-01 -3.4849066E+04
 1.5000000E+00  1.3500000E+01 -5.0000000E+00  7.8712554E+06  1.0822465E+01  5.7738497E-01  3.1561162E-01  1.0700341E-01  0.0000000E+00  0.0000000E+00  1.8608086E-02  3.6137018E-01  6.0340693E-02  2.9600000E-13  2.9514147E-01 -3.4933190E+04
 1.5000000E+00  1.4500000E+01 -5.0000000E+00  7.9331743E+06  1.0893612E+01  5.7846978E-01  3.1490578E-01  1.0662444E-01  0.0000000E+00  0.0000000E+00  1.8548914E-02  3.6179831E-01  5.9815209E-02  2.9600000E-13  2.9532428E-01 -3.5009535E+04
 1.5000000E+00  1.5500000E+01 -5.0000000E+00  7.9906985E+06  1.0959102E+01  5.7945565E-01  3.1426407E-01  1.0628028E-01  0.0000000E+00  0.0000000E+00  1.8495126E-02  3.6218858E-01  5.9340306E-02  2.9600000E-13  2.9549421E-01 -3.5079273E+04
 1.5000000E+00  1.6500000E+01 -5.0000000E+00  8.0442887E+06  1.1019594E+01  5.8035608E-01  3.1367757E-01  1.0596635E-01  0.0000000E+00  0.0000000E+00  1.8446093E-02  3.6254525E-01  5.8908760E-02  2.9600000E-13  2.9565261E-01 -3.5143323E+04
 1.5000000E+00  1.7500000E+01 -5.0000000E+00  8.0943306E+06  1.1075636E+01  5.8118193E-01  3.1313917E-01  1.0567889E-01  0.0000000E+00  0.0000000E+00  1.8401286E-02  3.6287194E-01  5.8514804E-02  2.9600000E-13  2.9580059E-01 -3.5202416E+04
 1.5000000E+00  1.8500000E+01 -5.0000000E+00  8.1411495E+06  1.1127686E+01  5.8194205E-01  3.1264309E-01  1.0541486E-01  0.0000000E+00  0.0000000E+00  1.8360260E-02  3.6317169E-01  5.8153761E-02  2.9600000E-13  2.9593912E-01 -3.5257141E+04
 1.5000000E+00  1.9500000E+01 -5.0000000E+00  8.1850231E+06  1.1176129E+01  5.8264373E-01  3.1218458E-01  1.0517170E-01  0.0000000E+00  0.0000000E+00  1.8322633E-02  3.6344716E-01  5.7821794E-02  2.9600000E-13  2.9606899E-01 -3.5307982E+04
 1.5000000E+00  2.0500000E+01 -5.0000000E+00  8.2261892E+06  1.1221294E+01  5.8329307E-01  3.1175968E-01  1.0494725E-01  0.0000000E+00  0.0000000E+00  1.8288076E-02  3.6370060E-01  5.7515715E-02  2.9600000E-13  2.9619089E-01 -3.5355339E+04
 1.5000000E+00  2.1500000E+01 -5.0000000E+00  8.2648537E+06  1.1263463E+01  5.8389522E-01  3.1136508E-01  1.0473969E-01  0.0000000E+00  0.0000000E+00  1.8256302E-02  3.6393402E-01  5.7232850E-02  2.9600000E-13  2.9630543E-01 -3.5399545E+04
 1.5000000E+00  2.2500000E+01 -5.0000000E+00  8.3011955E+06  1.1302879E+01  5.8445455E-01  3.1099798E-01  1.0454747E-01  0.0000000E+00  0.0000000E+00  1.8227062E-02  3.6414915E-01  5.6970935E-02  2.9600000E-13  2.9641314E-01 -3.5440881E+04
 1.5000000E+00  2.3500000E+01 -5.0000000E+00  8.3353713E+06  1.1339754E+01  5.8497479E-01  3.1065599E-01  1.0436923E-01  0.0000000E+00  0.0000000E+00  1.8200134E-02  3.6434755E-01  5.6728039E-02  2.9600000E-13  2.9651445E-01 -3.5479586E+04
 1.5000000E+00  2.4500000E+01 -5.0000000E+00  8.3675184E+06  1.1374271E+01  5.8545918E-01  3.1033703E-01  1.0420379E-01  0.0000000E+00  0.0000000E+00  1.8175325E-02  3.6453057E-01  5.6502504E-02  2.9600000E-13  2.9660979E-01 -3.5515862E+04
 1.5000000E+00  2.5500000E+01 -5.0000000E+00  8.3977586E+06  1.1406593E+01  5.8591051E-01  3.1003934E-01  1.0405015E-01  0.0000000E+00  0.0000000E+00  1.8152460E-02  3.6469945E-01  5.6292897E-02  2.9600000E-13  2.9669950E-01 -3.5549886E+04
 1.5000000E+00  2.6500000E+01 -5.0000000E+00  8.4261995E+06  1.1436862E+01  5.8633125E-01  3.0976136E-01  1.0390739E-01  0.0000000E+00  0.0000000E+00  1.8131386E-02  3.6485528E-01  5.6097970E-02  2.9600000E-13  2.9678390E-01 -3.5581809E+04
 1.5000000E+00  2.7500000E+01 -5.0000000E+00  8.4529370E+06  1.1465204E+01  5.8672352E-01  3.0950175E-01  1.0377473E-01  0.0000000E+00  0.0000000E+00  1.8111963E-02  3.6499905E-01  5.5916635E-02  2.9600000E-13  2.9686326E-01 -3.5611762E+04
 1.5000000E+00  2.8500000E+01 -5.0000000E+00  8.4780567E+06  1.1491731E+01  5.8708922E-01  3.0925932E-01  1.0365146E-01  0.0000000E+00  0.0000000E+00  1.8094067E-02  3.6513163E-01  5.5747935E-02  2.9600000E-13  2.9693784E-01 -3.5639860E+04
 1.5000000E+00  2.9500000E+01 -5.0000000E+00  8.5016351E+06  1.1516544E+01  5.8743001E-01  3.0903302E-01  1.0353697E-01  0.0000000E+00  0.0000000E+00  1.8077587E-02  3.6525384E-01  5.5591031E-02  2.9600000E-13  2.9700786E-01 -3.5666203E+04
 1.5000000E+00  3.0500000E+01 -5.0000000E+00  8.5237409E+06  1.1539731E+01  5.8774738E-01  3.0882193E-01  1.0343069E-01  0.0000000E+00  0.0000000E+00  1.8062421E-02  3.6536639E-01  5.5445178E-02  2.9600000E-13  2.9707352E-01 -3.5690879E+04
 1.5000000E+00  3.1500000E+01 -5.0000000E+00  8.5444358E+06  1.1561371E+01  5.8804263E-01  3.0862524E-01  1.0333213E-01  0.0000000E+00  0.0000000E+00  1.8048477E-02  3.6546994E-01  5.5309718E-02  2.9600000E-13  2.9713501E-01 -3.5713966E+04
 1.5000000E+00  3.2500000E+01 -5.0000000E+00  8.5637754E+06  1.1581537E+01  5.8831694E-01  3.0844221E-01  1.0324085E-01  0.0000000E+00  0.0000000E+00  1.8035674E-02  3.6556509E-01  5.5184063E-02  2.9600000E-13  2.9719248E-01 -3.5735533E+04
 1.5000000E+00  3.3500000E+01 -5.0000000E+00  8.5818098E+06  1.1600291E+01  5.8857135E-01  3.0827220E-01  1.0315644E-01  0.0000000E+00  0.0000000E+00  1.8023936E-02  3.6565238E-01  5.5067696E-02  2.9600000E-13  2.9724608E-01 -3.5755641E+04
 1.5000000E+00  3.4500000E+01 -5.0000000E+00  8.5985839E+06  1.1617691E+01  5.8880679E-01  3.0811464E-01  1.0307857E-01  0.0000000E+00  0.0000000E+00  1.8013196E-02  3.6573229E-01  5.4960150E-02  2.9600000E-13  2.9729595E-01 -3.5774342E+04
 1.5000000E+00  3.5500000E+01 -5.0000000E+00  8.6141385E+06  1.1633790E+01  5.8902410E-01  3.0796901E-01  1.0300689E-01  0.0000000E+00  0.0000000E+00  1.8003393E-02  3.6580526E-01  5.4861012E-02  2.9600000E-13  2.9734219E-01 -3.5791686E+04
 1.5000000E+00  3.6500000E+01 -5.0000000E+00  8.6285101E+06  1.1648632E+01  5.8922401E-01  3.0783486E-01  1.0294113E-01  0.0000000E+00  0.0000000E+00  1.7994471E-02  3.6587171E-01  5.4769914E-02  2.9600000E-13  2.9738493E-01 -3.5807715E+04
 1.5000000E+00  3.7500000E+01 -5.0000000E+00  8.6417317E+06  1.1662261E+01  5.8940720E-01  3.0771177E-01  1.0288103E-01  0.0000000E+00  0.0000000E+00  1.7986381E-02  3.6593199E-01  5.4686526E-02  2.9600000E-13  2.9742425E-01 -3.5822465E+04
 1.5000000E+00  3.8500000E+01 -5.0000000E+00  8.6538326E+06  1.1674712E+01  5.8957425E-01  3.0759938E-01  1.0282636E-01  0.0000000E+00  0.0000000E+00  1.7979078E-02  3.6598643E-01  5.4610557E-02  2.9600000E-13  2.9746024E-01 -3.5835971E+04
 1.5000000E+00  3.9500000E+01 -5.0000000E+00  8.6648394E+06  1.1686018E+01  5.8972570E-01  3.0749738E-01  1.0277692E-01  0.0000000E+00  0.0000000E+00  1.7972521E-02  3.6603532E-01  5.4541746E-02  2.9600000E-13  2.9749299E-01 -3.5848262E+04
 1.5000000E+00  4.0500000E+01 -5.0000000E+00  8.6747756E+06  1.1696210E+01  5.8986200E-01  3.0740547E-01  1.0273253E-01  0.0000000E+00  0.0000000E+00  1.7966675E-02  3.6607892E-01  5.4479865E-02  2.9600000E-13  2.9752255E-01 -3.5859364E+04
 1.5000000E+00  4.1500000E+01 -5.0000000E+00  8.6836620E+06  1.1705313E+01  5.8998357E-01  3.0732341E-01  1.0269301E-01  0.0000000E+00  0.0000000E+00  1.7961508E-02  3.6611748E-01  5.4424711E-02  2.9600000E-13  2.9754899E-01 -3.5869300E+04
 1.5000000E+00  4.2500000E+01 -5.0000000E+00  8.6915170E+06  1.1713350E+01  5.9009078E-01  3.0725098E-01  1.0265824E-01  0.0000000E+00  0.0000000E+00  1.7956991E-02  3.6615118E-01  5.4376107E-02  2.9600000E-13  2.9757236E-01 -3.5878089E+04
 1.5000000E+00  4.3500000E+01 -5.0000000E+00  8.6983565E+06  1.1720341E+01  5.9018392E-01  3.0718798E-01  1.0262810E-01  0.0000000E+00  0.0000000E+00  1.7953100E-02  3.6618022E-01  5.4333900E-02  2.9600000E-13  2.9759271E-01 -3.5885749E+04
 1.5000000E+00  4.4500000E+01 -5.0000000E+00  8.7041942E+06  1.1726302E+01  5.9026328E-01  3.0713426E-01  1.0260246E-01  0.0000000E+00  0.0000000E+00  1.7949814E-02  3.6620476E-01  5.4297960E-02  2.9600000E-13  2.9761009E-01 -3.5892294E+04
 1.5000000E+00  4.5500000E+01 -5.0000000E+00  8.7090417E+06  1.1731249E+01  5.9032906E-01  3.0708968E-01  1.0258126E-01  0.0000000E+00  0.0000000E+00  1.7947115E-02  3.6622492E-01  5.4268176E-02  2.9600000E-13  2.9762451E-01 -3.5897736E+04
 1.5000000E+00  4.6500000E+01 -5.0000000E+00  8.7129084E+06  1.1735192E+01  5.9038147E-01  3.0705413E-01  1.0256440E-01  0.0000000E+00  0.0000000E+00  1.7944985E-02  3.6624082E-01  5.4244458E-02  2.9600000E-13  2.9763602E-01 -3.5902084E+04
 1.5000000E+00  4.7500000E+01 -5.0000000E+00  8.7158021E+06  1.1738142E+01  5.9042064E-01  3.0702753E-01  1.0255184E-01  0.0000000E+00  0.0000000E+00  1.7943412E-02  3.6625256E-01  5.4226736E-02  2.9600000E-13  2.9764464E-01 -3.5905345E+04
 1.5000000E+00  4.8500000E+01 -5.0000000E+00  8.7177281E+06  1.1740104E+01  5.9044667E-01  3.0700981E-01  1.0254351E-01  0.0000000E+00  0.0000000E+00  1.7942383E-02  3.6626025E-01  5.4214957E-02  2.9600000E-13  2.9765037E-01 -3.5907523E+04
 1.5000000E+00  4.9500000E+01 -5.0000000E+00  8.7186902E+06  1.1741084E+01  5.9045965E-01  3.0700096E-01  1.0253939E-01  0.0000000E+00  0.0000000E+00  1.7941883E-02  3.6626399E-01  5.4209085E-02  2.9600000E-13  2.9765323E-01 -3.5908616E+04
 2.5000000E+00  5.0000000E-01 -5.0000000E+00  6.4611707E+06  8.9874987E+00  5.3578544E-01  3.4369525E-01  1.2051932E-01  0.0000000E+00  0.0000000E+00  2.0189258E-02  3.5036899E-01  8.2890598E-02  2.9600000E-13  2.9100893E-01 -3.1976795E+04
 2.5000000E+00  1.5000000E+00 -5.0000000E+00  6.5713645E+06  9.1479025E+00  5.4099000E-01  3.4004251E-01  1.1896749E-01  0.0000000E+00  0.0000000E+00  2.0078986E-02  3.5111002E-01  7.9805158E-02  2.9600000E-13  2.9132978E-01 -3.2354605E+04
 2.5000000E+00  2.5000000E+00 -5.0000000E+00  6.7225615E+06  9.3627289E+00  5.4786493E-01  3.3528425E-01  1.1685082E-01  0.0000000E+00  0.0000000E+00  1.9893070E-02  3.5236792E-01  7.5848155E-02  2.9600000E-13  2.9177060E-01 -3.2850043E+04
 2.5000000E+00  3.5000000E+00 -5.0000000E+00  6.8792001E+06  9.5791429E+00  5.5383046E-01  3.3120409E-01  1.1496545E-01  0.0000000E+00  0.0000000E+00  1.9700929E-02  3.5367939E-01  7.2522444E-02  2.9600000E-13  2.9222798E-01 -3.3279277E+04
 2.5000000E+00  4.5000000E+00 -5.0000000E+00  7.0271257E+06  9.7780466E+00  5.5857653E-01  3.2799683E-01  1.1342663E-01  0.0000000E+00  0.0000000E+00  1.9523510E-02  3.5490088E-01  6.9947107E-02  2.9600000E-13  2.9266058E-01 -3.3618124E+04
 2.5000000E+00  5.5000000E+00 -5.0000000E+00  7.1621962E+06  9.9552293E+00  5.6234923E-01  3.2547406E-01  1.1217671E-01  0.0000000E+00  0.0000000E+00  1.9365516E-02  3.5599726E-01  6.7944005E-02  2.9600000E-13  2.9305615E-01 -3.3884906E+04
 2.5000000E+00  6.5000000E+00 -5.0000000E+00  7.2842676E+06  1.0111866E+01  5.6541322E-01  3.2344226E-01  1.1114452E-01  0.0000000E+00  0.0000000E+00  1.9226211E-02  3.5697080E-01  6.6345615E-02  2.9600000E-13  2.9341410E-01 -3.4099805E+04
 2.5000000E+00  7.5000000E+00 -5.0000000E+00  7.3945256E+06  1.0250597E+01  5.6796170E-01  3.2176294E-01  1.1027536E-01  0.0000000E+00  0.0000000E+00  1.9103366E-02  3.5783470E-01  6.5035412E-02  2.9600000E-13  2.9373779E-01 -3.4277530E+04
 2.5000000E+00  8.5000000E+00 -5.0000000E+00  7.4944377E+06  1.0374133E+01  5.7012609E-01  3.2034328E-01  1.0953064E-01  0.0000000E+00  0.0000000E+00  1.8994606E-02  3.5860380E-01  6.3936314E-02  2.9600000E-13  2.9403142E-01 -3.4427988E+04
 2.5000000E+00  9.5000000E+00 -5.0000000E+00  7.5853879E+06  1.0484842E+01  5.7199599E-01  3.1912079E-01  1.0888323E-01  0.0000000E+00  0.0000000E+00  1.8897827E-02  3.5929159E-01  6.2996790E-02  2.9600000E-13  2.9429896E-01 -3.4557832E+04
 2.5000000E+00  1.0500000E+01 -5.0000000E+00  7.6685749E+06  1.0584681E+01  5.7363398E-01  3.1805233E-01  1.0831369E-01  0.0000000E+00  0.0000000E+00  1.8811262E-02  3.5990953E-01  6.2181388E-02  2.9600000E-13  2.9454388E-01 -3.4671642E+04
 2.5000000E+00  1.1500000E+01 -5.0000000E+00  7.7450048E+06  1.0675245E+01  5.7508502E-01  3.1710719E-01  1.0780779E-01  0.0000000E+00  0.0000000E+00  1.8733463E-02  3.6046712E-01  6.1464953E-02  2.9600000E-13  2.9476909E-01 -3.4772659E+04
 2.5000000E+00  1.2500000E+01 -5.0000000E+00  7.8155135E+06  1.0757825E+01  5.7638232E-01  3.1626290E-01  1.0735478E-01  0.0000000E+00  0.0000000E+00  1.8663241E-02  3.6097222E-01  6.0829107E-02  2.9600000E-13  2.9497700E-01 -3.4863244E+04
 2.5000000E+00  1.3500000E+01 -5.0000000E+00  7.8807951E+06  1.0833471E+01  5.7755100E-01  3.1550257E-01  1.0694644E-01  0.0000000E+00  0.0000000E+00  1.8599623E-02  3.6143134E-01  6.0260071E-02  2.9600000E-13  2.9516963E-01 -3.4945164E+04
 2.5000000E+00  1.4500000E+01 -5.0000000E+00  7.9414280E+06  1.0903044E+01  5.7861048E-01  3.1481323E-01  1.0657630E-01  0.0000000E+00  0.0000000E+00  1.8541800E-02  3.6184987E-01  5.9747279E-02  2.9600000E-13  2.9534865E-01 -3.5019768E+04
 2.5000000E+00  1.5500000E+01 -5.0000000E+00  7.9978971E+06  1.0967256E+01  5.7957607E-01  3.1418471E-01  1.0623922E-01  0.0000000E+00  0.0000000E+00  1.8489098E-02  3.6223238E-01  5.9282468E-02  2.9600000E-13  2.9551548E-01 -3.5088108E+04
 2.5000000E+00  1.6500000E+01 -5.0000000E+00  8.0506115E+06  1.1026698E+01  5.8046005E-01  3.1360892E-01  1.0593102E-01  0.0000000E+00  0.0000000E+00  1.8440949E-02  3.6258272E-01  5.8859065E-02  2.9600000E-13  2.9567130E-01 -3.5151018E+04
 2.5000000E+00  1.7500000E+01 -5.0000000E+00  8.0999186E+06  1.1081868E+01  5.8127238E-01  3.1307933E-01  1.0564829E-01  0.0000000E+00  0.0000000E+00  1.8396872E-02  3.6290416E-01  5.8471762E-02  2.9600000E-13  2.9581712E-01 -3.5209170E+04
 2.5000000E+00  1.8500000E+01 -5.0000000E+00  8.1461157E+06  1.1133185E+01  5.8202127E-01  3.1259056E-01  1.0538818E-01  0.0000000E+00  0.0000000E+00  1.8356452E-02  3.6319955E-01  5.8116218E-02  2.9600000E-13  2.9595382E-01 -3.5263111E+04
 2.5000000E+00  1.9500000E+01 -5.0000000E+00  8.1894584E+06  1.1181008E+01  5.8271353E-01  3.1213818E-01  1.0514829E-01  0.0000000E+00  0.0000000E+00  1.8319333E-02  3.6347135E-01  5.7788839E-02  2.9600000E-13  2.9608212E-01 -3.5313292E+04
 2.5000000E+00  2.0500000E+01 -5.0000000E+00  8.2301681E+06  1.1225645E+01  5.8335491E-01  3.1171847E-01  1.0492662E-01  0.0000000E+00  0.0000000E+00  1.8285204E-02  3.6372168E-01  5.7486622E-02  2.9600000E-13  2.9620268E-01 -3.5360087E+04
 2.5000000E+00  2.1500000E+01 -5.0000000E+00  8.2684377E+06  1.1267360E+01  5.8395028E-01  3.1132830E-01  1.0472142E-01  0.0000000E+00  0.0000000E+00  1.8253795E-02  3.6395245E-01  5.7207034E-02  2.9600000E-13  2.9631605E-01 -3.5403813E+04
 2.5000000E+00  2.2500000E+01 -5.0000000E+00  8.3044359E+06  1.1306383E+01  5.8450378E-01  3.1096500E-01  1.0453122E-01  0.0000000E+00  0.0000000E+00  1.8224867E-02  3.6416531E-01  5.6947918E-02  2.9600000E-13  2.9642274E-01 -3.5444734E+04
 2.5000000E+00  2.3500000E+01 -5.0000000E+00  8.3383110E+06  1.1342917E+01  5.8501900E-01  3.1062628E-01  1.0435472E-01  0.0000000E+00  0.0000000E+00  1.8198208E-02  3.6436175E-01  5.6707429E-02  2.9600000E-13  2.9652317E-01 -3.5483079E+04